 Q-Chem 4.3 (beta), Q-Chem, Inc., Pleasanton, CA (2015)
 Q-Chem 4.3.0 for Intel X86 EM64T Linux

User input:
--------------------------------------------------------------
$comment
    Paraphrased from Q-Chem Manual:
    Sample Random Phase Approximation (RPA), AKA TD-HF.
    Should be roughly comparable to CIS for excitation energies to singlet states,
    but is inferior for triplet states.
    RPA is non-variational
$end

$molecule
0 1
N1
N2 N1 1.1
$end

$rem
jobtype    opt
exchange   omegaB97X-D
basis      6-311++G**
$end

--------------------------------------------------------------

    9    -109.5178111460      2.90E-09 Convergence criterion met
 Total energy in the final basis set = -109.5178111460
    9    -109.5179803898      1.99E-09 Convergence criterion met
 Total energy in the final basis set = -109.5179803898
    7    -109.5179818400      2.16E-09 Convergence criterion met
 Total energy in the final basis set = -109.5179818400
 Final energy is   -109.517981839972
 **  OPTIMIZATION CONVERGED  **
 Total job time:  4.26s(wall), 4.25s(cpu)
        *  Thank you very much for using Q-Chem.  Have a nice day.  *

User input: 2 of 2

/home/ben/opt/apps/qchem/trunk_intel_release/exe/qcprog.exe .rpa.in.13300.qcin.2 /home/ben/scratch/qchem/qchem13300/
                  Welcome to Q-Chem
     A Quantum Leap Into The Future Of Chemistry

 Q-Chem 4.3 (beta), Q-Chem, Inc., Pleasanton, CA (2015)

 Y. Shao,  Z. Gan,  E. Epifanovsky,  A. T. B. Gilbert,  M. Wormit,
 J. Kussmann,  A. W. Lange,  A. Behn,  J. Deng,  X. Feng,  D. Ghosh,
 M. Goldey,  P. R. Horn,  L. D. Jacobson,  I. Kaliman,  R. Z. Khaliullin,
 T. Kus,  A. Landau,  J. Liu,  E. I. Proynov,  Y. M. Rhee,  R. M. Richard,
 M. A. Rohrdanz,  R. P. Steele,  E. J. Sundstrom,  H. L. Woodcock III,
 P. M. Zimmerman,  D. Zuev,  B. Albrecht,  E. Alguire,  B. Austin,
 S. A. Baeppler,  G. J. O. Beran,  Y. A. Bernard,  E. Berquist,
 K. Brandhorst,  K. B. Bravaya,  S. T. Brown,  D. Casanova,  C.-M. Chang,
 Y. Chen,  S. H. Chien,  K. D. Closser,  D. L. Crittenden,  M. Diedenhofen,
 R. A. DiStasio Jr.,  H. Do,  A. D. Dutoi,  R. G. Edgar,  P.-T. Fang,
 S. Fatehi,  Q. Feng,  L. Fusti-Molnar,  A. Ghysels,
 A. Golubeva-Zadorozhnaya,  J. Gomes,  A. Gunina,  M. W. D. Hanson-Heine,
 P. H. P. Harbach,  A. W. Hauser,  E. G. Hohenstein,  Z. C. Holden,  K. Hui,
 T.-C. Jagau,  H. Ji,  B. Kaduk,  K. Khistyaev,  Jaehoon Kim,  Jihan Kim,
 R. A. King,  P. Klunzinger,  D. Kosenkov,  T. Kowalczyk,  C. M. Krauter,
 K. U. Lao,  A. Laurent,  K. V. Lawler,  S. Lehtola,  S. V. Levchenko,
 C. Y. Lin,  Y.-S. Lin,  F. Liu,  E. Livshits,  R. C. Lochan,  A. Luenser,
 P. Manohar,  S. F. Manzer,  S.-P. Mao,  N. Mardirossian,  A. V. Marenich,
 L. A. Martinez-Martinez,  S. A. Maurer,  N. J. Mayhall,  K. Nanda,
 C. M. Oana,  R. Olivares-Amaya,  D. P. O'Neill,  J. A. Parkhill,
 T. M. Perrine,  R. Peverati,  P. A. Pieniazek,  F. Plasser,  A. Prociuk,
 D. R. Rehn,  E. Rosta,  N. J. Russ,  N. Sergueev,  S. M. Sharada,
 S. Sharma,  D. W. Small,  A. Sodt,  T. Stauch,  T. Stein,  D. Stuck,
 Y.-C. Su,  A. J. W. Thom,  T. Tsuchimochi,  L. Vogt,  O. Vydrov,  T. Wang,
 M. A. Watson,  J. Wenzel,  A. White,  C. F. Williams,  V. Vanovschi,
 S. Yeganeh,  S. R. Yost,  Z.-Q. You,  I. Y. Zhang,  X. Zhang,  Y. Zhao,
 B. R. Brooks,  G. K. L. Chan,  D. M. Chipman,  C. J. Cramer,
 W. A. Goddard III,  M. S. Gordon,  W. J. Hehre,  A. Klamt,
 H. F. Schaefer III,  M. W. Schmidt,  C. D. Sherrill,  D. G. Truhlar,
 A. Warshel,  X. Xu,  A. Aspuru-Guzik,  R. Baer,  A. T. Bell,  N. A. Besley,
 J.-D. Chai,  A. Dreuw,  B. D. Dunietz,  T. R. Furlani,  S. R. Gwaltney,
 C.-P. Hsu,  Y. Jung,  J. Kong,  D. S. Lambrecht,  W. Liang,  C. Ochsenfeld,
 V. A. Rassolov,  L. V. Slipchenko,  J. E. Subotnik,  T. Van Voorhis,
 J. M. Herbert,  A. I. Krylov,  P. M. W. Gill,  M. Head-Gordon

 Contributors to earlier versions of Q-Chem not listed above:
 R. D. Adamson,  J. Baker,  E. F. C. Byrd,  A. K. Chakraborty,  C.-L. Cheng,
 H. Dachsel,  R. J. Doerksen,  G. Hawkins,  A. Heyden,  S. Hirata,
 G. Kedziora,  F. J. Keil,  C. Kelley,  P. P. Korambath,  W. Kurlancheek,
 A. M. Lee,  M. S. Lee,  D. Liotard,  I. Lotan,  P. E. Maslen,  N. Nair,
 D. Neuhauser,  R. Olson,  B. Peters,  J. Ritchie,  N. E. Schultz,
 N. Shenvi,  A. C. Simmonett,  K. S. Thanthiriwatte,  Q. Wu,  W. Zhang

 Please cite Q-Chem as follows:
 Y. Shao et al., Mol. Phys. 113, 184-215 (2014)
 DOI: 10.1080/00268976.2014.952696

 Q-Chem 4.3.0 for Intel X86 EM64T Linux

 Parts of Q-Chem use Armadillo 4.550.3 (Singapore Sling Deluxe).
 http://arma.sourceforge.net/

 Q-Chem begins on Tue Jun 16 16:09:55 2015

Host:
0

     Scratch files written to /home/ben/scratch/qchem/qchem13300//
 Mar2415 |home|ben|opt|apps|qchem|trunk_RNUM -1

Checking the input file for inconsistencies...	...done.

--------------------------------------------------------------
User input:
--------------------------------------------------------------

$molecule
READ
$end

$rem
jobtype       sp
exchange      omegaB97X-D
basis         6-311++G**
scf_guess     READ
cis_n_roots   10
rpa           true
$end
--------------------------------------------------------------

             Standard Nuclear Orientation (Angstroms)
    I     Atom           X                Y                Z
 ----------------------------------------------------------------
    1      N       0.0000000000     0.0000000000    -0.5461494829
    2      N       0.0000000000     0.0000000000     0.5461494829
 ----------------------------------------------------------------

    2    -109.5179818468      4.45E-09 Convergence criterion met
 Total energy in the final basis set = -109.5179818468

             TDDFT Excitation Energies
 ---------------------------------------------------

 Excited state   1: excitation energy (eV) =    7.2996
    Total energy for state   1:   -109.249724970654
    Multiplicity: Triplet
    Trans. Mom.:  0.0000 X   0.0000 Y   0.0000 Z
    Strength   :  0.0000
    X: D(  5) --> V(  1) amplitude =  0.7007
    X: D(  6) --> V(  2) amplitude =  0.7007

 Excited state   2: excitation energy (eV) =    7.8975
    Total energy for state   2:   -109.227754895427
    Multiplicity: Triplet
    Trans. Mom.:  0.0000 X   0.0000 Y   0.0000 Z
    Strength   :  0.0000
    X: D(  7) --> V(  1) amplitude =  0.9894

 Excited state   3: excitation energy (eV) =    7.8975
    Total energy for state   3:   -109.227754895392
    Multiplicity: Triplet
    Trans. Mom.:  0.0000 X   0.0000 Y   0.0000 Z
    Strength   :  0.0000
    X: D(  7) --> V(  2) amplitude =  0.9894

 Excited state   4: excitation energy (eV) =    8.3479
    Total energy for state   4:   -109.211200368537
    Multiplicity: Triplet
    Trans. Mom.:  0.0000 X   0.0000 Y   0.0000 Z
    Strength   :  0.0000
    X: D(  5) --> V(  1) amplitude = -0.7002
    X: D(  6) --> V(  2) amplitude =  0.7002

 Excited state   5: excitation energy (eV) =    8.3497
    Total energy for state   5:   -109.211135269932
    Multiplicity: Triplet
    Trans. Mom.:  0.0000 X   0.0000 Y   0.0000 Z
    Strength   :  0.0000
    X: D(  5) --> V(  2) amplitude =  0.7002
    X: D(  6) --> V(  1) amplitude =  0.7002

 Excited state   6: excitation energy (eV) =    9.4216
    Total energy for state   6:   -109.171745248593
    Multiplicity: Triplet
    Trans. Mom.:  0.0000 X   0.0000 Y   0.0000 Z
    Strength   :  0.0000
    X: D(  5) --> V(  2) amplitude =  0.7016
    X: D(  6) --> V(  1) amplitude = -0.7016

 Excited state   7: excitation energy (eV) =    9.4216
    Total energy for state   7:   -109.171745248593
    Multiplicity: Singlet
    Trans. Mom.: -0.0000 X   0.0000 Y   0.0000 Z
    Strength   :  0.0000
    X: D(  5) --> V(  2) amplitude = -0.7016
    X: D(  6) --> V(  1) amplitude =  0.7016

 Excited state   8: excitation energy (eV) =    9.4610
    Total energy for state   8:   -109.170297867836
    Multiplicity: Singlet
    Trans. Mom.:  0.0000 X   0.0000 Y  -0.0000 Z
    Strength   :  0.0000
    X: D(  7) --> V(  1) amplitude =  0.9942

 Excited state   9: excitation energy (eV) =    9.4610
    Total energy for state   9:   -109.170297867805
    Multiplicity: Singlet
    Trans. Mom.: -0.0000 X   0.0000 Y  -0.0000 Z
    Strength   :  0.0000
    X: D(  7) --> V(  2) amplitude =  0.9942

 Excited state  10: excitation energy (eV) =    9.9340
    Total energy for state  10:   -109.152913923557
    Multiplicity: Singlet
    Trans. Mom.: -0.0000 X   0.0000 Y  -0.0000 Z
    Strength   :  0.0000
    X: D(  5) --> V(  1) amplitude =  0.7032
    X: D(  6) --> V(  2) amplitude = -0.7032

 Excited state  11: excitation energy (eV) =    9.9352
    Total energy for state  11:   -109.152868253143
    Multiplicity: Singlet
    Trans. Mom.: -0.0000 X  -0.0000 Y   0.0000 Z
    Strength   :  0.0000
    X: D(  5) --> V(  2) amplitude =  0.7032
    X: D(  6) --> V(  1) amplitude =  0.7032

 Excited state  12: excitation energy (eV) =   11.0218
    Total energy for state  12:   -109.112937194334
    Multiplicity: Triplet
    Trans. Mom.:  0.0000 X   0.0000 Y   0.0000 Z
    Strength   :  0.0000
    X: D(  4) --> V(  1) amplitude = -0.9820

 Excited state  13: excitation energy (eV) =   11.0218
    Total energy for state  13:   -109.112937194299
    Multiplicity: Triplet
    Trans. Mom.:  0.0000 X   0.0000 Y   0.0000 Z
    Strength   :  0.0000
    X: D(  4) --> V(  2) amplitude = -0.9820

 Excited state  14: excitation energy (eV) =   12.5737
    Total energy for state  14:   -109.055908700271
    Multiplicity: Triplet
    Trans. Mom.:  0.0000 X   0.0000 Y   0.0000 Z
    Strength   :  0.0000
    X: D(  7) --> V(  3) amplitude =  0.9643

 Excited state  15: excitation energy (eV) =   13.2736
    Total energy for state  15:   -109.030184607305
    Multiplicity: Triplet
    Trans. Mom.:  0.0000 X   0.0000 Y   0.0000 Z
    Strength   :  0.0000
    X: D(  4) --> V(  3) amplitude =  0.2389
    X: D(  7) --> V(  4) amplitude =  0.9586

 Excited state  16: excitation energy (eV) =   13.4171
    Total energy for state  16:   -109.024912347593
    Multiplicity: Singlet
    Trans. Mom.: -0.0000 X  -0.0000 Y   1.2583 Z
    Strength   :  0.5205
    X: D(  4) --> V(  3) amplitude =  0.2541
    X: D(  5) --> V(  1) amplitude =  0.2605
    X: D(  6) --> V(  2) amplitude =  0.2605
    X: D(  7) --> V(  4) amplitude =  0.8819

 Excited state  17: excitation energy (eV) =   13.4445
    Total energy for state  17:   -109.023906649978
    Multiplicity: Singlet
    Trans. Mom.:  0.0000 X   0.0000 Y  -0.0000 Z
    Strength   :  0.0000
    X: D(  7) --> V(  3) amplitude =  0.9783

 Excited state  18: excitation energy (eV) =   13.6426
    Total energy for state  18:   -109.016624865866
    Multiplicity: Singlet
    Trans. Mom.: -0.0017 X   0.7470 Y  -0.0000 Z
    Strength   :  0.1865
    X: D(  6) --> V(  3) amplitude =  0.5225
    X: D(  7) --> V(  6) amplitude =  0.8394

 Excited state  19: excitation energy (eV) =   13.6427
    Total energy for state  19:   -109.016622638588
    Multiplicity: Singlet
    Trans. Mom.:  0.7464 X   0.0017 Y  -0.0000 Z
    Strength   :  0.1862
    X: D(  5) --> V(  3) amplitude =  0.5221
    X: D(  7) --> V(  5) amplitude =  0.8397

 Excited state  20: excitation energy (eV) =   13.9185
    Total energy for state  20:   -109.006485666027
    Multiplicity: Singlet
    Trans. Mom.: -0.0011 X   0.4994 Y   0.0000 Z
    Strength   :  0.0850
    X: D(  4) --> V(  2) amplitude =  0.4087
    X: D(  6) --> V(  3) amplitude =  0.7601
    X: D(  7) --> V(  6) amplitude = -0.4867

 ---------------------------------------------------

                    Orbital Energies (a.u.)
 --------------------------------------------------------------

 Alpha MOs
 -- Occupied --
-14.541 -14.539  -1.240  -0.650  -0.561  -0.561  -0.526

          Ground-State Mulliken Net Atomic Charges

     Atom                 Charge (a.u.)
  ----------------------------------------
      1 N                    -0.000000
      2 N                     0.000000
  ----------------------------------------
  Sum of atomic charges =     0.000000

                    Cartesian Multipole Moments
 -----------------------------------------------------------------
    Charge (ESU x 10^10)
                 0.0000
    Dipole Moment (Debye)
         X      -0.0000      Y      -0.0000      Z       0.0000
       Tot       0.0000
    Quadrupole Moments (Debye-Ang)
        XX     -10.2342     XY      -0.0000     YY     -10.2342
        XZ       0.0000     YZ      -0.0000     ZZ     -11.9098

 Total job time:  8.46s(wall), 8.44s(cpu)
        *  Thank you very much for using Q-Chem.  Have a nice day.  *
