 Q-Chem 4.2, Q-Chem, Inc., Pleasanton, CA (2014).
 Q-Chem 4.2.2 for Mac (Intel) OS X

User input:
--------------------------------------------------------------
$molecule
0 2
  C -3.77578000 1.41262000 -0.21447000
  O -2.58788000 2.06725000 -0.31292000
  O -4.74823000 1.86911000 -0.79440000
  C -3.94794000 0.18513000 0.64310000
  Si -5.09683000 0.52472000 2.08857000
  H -6.44891000 0.92942000 1.68661000
  H -4.52084000 1.59870000 2.91141000
  H -5.20411000 -0.69259000 2.90604000
  H -2.97500000 -0.09451000 1.10097000
  C -1.91298000 2.29507000 -1.49424000
  H -0.96024000 2.81679000 -1.26960000
  H -2.50277000 2.93872000 -2.17280000
  H -1.67976000 1.33066000 -1.99391000
$end

$rem
    jobtype                     sp
    exchange                    b3lyp
    basis                       sto-3g
    unrestricted                true
    chelpg                      true
    chelpg_head                 30 ! default 30
    chelpg_dx                   6 ! default 6
    !chelpg_h                   ! lebedev grid for H atoms
    !chelpg_ha                  ! lebedev grid for non-H atoms
$end
--------------------------------------------------------------

             Standard Nuclear Orientation (Angstroms)
    I     Atom           X                Y                Z
 ----------------------------------------------------------------
    1      C      -3.7757800000     1.4126200000    -0.2144700000
    2      O      -2.5878800000     2.0672500000    -0.3129200000
    3      O      -4.7482300000     1.8691100000    -0.7944000000
    4      C      -3.9479400000     0.1851300000     0.6431000000
    5      Si     -5.0968300000     0.5247200000     2.0885700000
    6      H      -6.4489100000     0.9294200000     1.6866100000
    7      H      -4.5208400000     1.5987000000     2.9114100000
    8      H      -5.2041100000    -0.6925900000     2.9060400000
    9      H      -2.9750000000    -0.0945100000     1.1009700000
   10      C      -1.9129800000     2.2950700000    -1.4942400000
   11      H      -0.9602400000     2.8167900000    -1.2696000000
   12      H      -2.5027700000     2.9387200000    -2.1728000000
   13      H      -1.6797600000     1.3306600000    -1.9939100000
 ----------------------------------------------------------------

   12    -551.4910479237      7.21E-06  00000 Convergence criterion met
 Total energy in the final basis set = -551.4910479237

                    Orbital Energies (a.u.)
 --------------------------------------------------------------

 Alpha MOs
 -- Occupied --
-65.380 -18.913 -18.873 -10.111 -10.081  -9.979  -5.102  -3.403
 -3.402  -3.402  -1.039  -0.957  -0.702  -0.656  -0.514  -0.481
 -0.432  -0.425  -0.410  -0.349  -0.336  -0.316  -0.291  -0.275
 -0.225  -0.193  -0.165  -0.148

 Beta MOs
 -- Occupied --
-65.380 -18.913 -18.869 -10.113 -10.081  -9.964  -5.102  -3.403
 -3.403  -3.402  -1.036  -0.949  -0.691  -0.640  -0.512  -0.477
 -0.426  -0.425  -0.407  -0.340  -0.329  -0.305  -0.290  -0.261
 -0.212  -0.166  -0.141

         Ground-State ChElPG Net Atomic Charges

     Atom                 Charge (a.u.)
  ----------------------------------------
      1 C                     0.622552
      2 O                    -0.328528
      3 O                    -0.351954
      4 C                    -0.286945
      5 Si                    0.409968
      6 H                    -0.095010
      7 H                    -0.089846
      8 H                    -0.093395
      9 H                     0.074000
     10 C                    -0.082022
     11 H                     0.083964
     12 H                     0.077568
     13 H                     0.059649
  ----------------------------------------
  Sum of atomic charges =     0.000000

                    Cartesian Multipole Moments
 -----------------------------------------------------------------
    Charge (ESU x 10^10)
                 0.0000
    Dipole Moment (Debye)
         X       1.3455      Y      -0.5522      Z       0.2122
       Tot       1.4698
    Quadrupole Moments (Debye-Ang)
        XX     -50.1575     XY       4.7721     YY     -41.7389
        XZ      -4.0361     YZ      -0.2214     ZZ     -37.9802

 Total job time:  9.83s(wall), 9.72s(cpu)
        *  Thank you very much for using Q-Chem.  Have a nice day.  *
