 Q-Chem 4.3 (beta), Q-Chem, Inc., Pleasanton, CA (2015)
 Q-Chem 4.3.0 for Intel X86 EM64T Linux

User input:
--------------------------------------------------------------
$molecule
0 2
  C -3.77578000 1.41262000 -0.21447000
  O -2.58788000 2.06725000 -0.31292000
  O -4.74823000 1.86911000 -0.79440000
  C -3.94794000 0.18513000 0.64310000
  Si -5.09683000 0.52472000 2.08857000
  H -6.44891000 0.92942000 1.68661000
  H -4.52084000 1.59870000 2.91141000
  H -5.20411000 -0.69259000 2.90604000
  H -2.97500000 -0.09451000 1.10097000
  C -1.91298000 2.29507000 -1.49424000
  H -0.96024000 2.81679000 -1.26960000
  H -2.50277000 2.93872000 -2.17280000
  H -1.67976000 1.33066000 -1.99391000
$end

$rem
    jobtype                     opt
    exchange                    omegaB97X-D
    basis                       6-31G**
    unrestricted                true
    geom_opt_tol_gradient       30
    geom_opt_tol_displacement   120
    geom_opt_tol_energy         10
    geom_opt_max_cycles         300
    scf_max_cycles              300
    scf_algorithm               diis_gdm
$end
--------------------------------------------------------------

   24    -558.2747888695      5.97E-09 Convergence criterion met
 Total energy in the final basis set = -558.2747888695
   20    -558.2880805057      4.53E-09 Convergence criterion met
 Total energy in the final basis set = -558.2880805057
   19    -558.2969790515      4.29E-09 Convergence criterion met
 Total energy in the final basis set = -558.2969790515
   20    -558.3034824565      5.95E-09 Convergence criterion met
 Total energy in the final basis set = -558.3034824565
   19    -558.3087763905      8.21E-09 Convergence criterion met
 Total energy in the final basis set = -558.3087763905
   20    -558.3132870290      4.91E-09 Convergence criterion met
 Total energy in the final basis set = -558.3132870290
   19    -558.3165448632      8.28E-09 Convergence criterion met
 Total energy in the final basis set = -558.3165448632
   19    -558.3185526097      4.76E-09 Convergence criterion met
   18    -558.3216904610      6.59E-09 Convergence criterion met
 Total energy in the final basis set = -558.3216904610
   18    -558.3217384283      3.19E-09 Convergence criterion met
 Total energy in the final basis set = -558.3217384283
   16    -558.3217546420      6.54E-09 Convergence criterion met
 Total energy in the final basis set = -558.3217546420
   16    -558.3217596090      4.08E-09 Convergence criterion met
 Total energy in the final basis set = -558.3217596090
   15    -558.3217610911      7.42E-09 Convergence criterion met
 Total energy in the final basis set = -558.3217610911
   15    -558.3217613596      2.47E-09 Convergence criterion met
 Total energy in the final basis set = -558.3217613596

             Standard Nuclear Orientation (Angstroms)
    I     Atom           X                Y                Z
 ----------------------------------------------------------------
    1      C       0.5257302888     0.1305985181     0.0100075403
    2      O       1.6234821038     0.8582166421     0.2896131034
    3      O       0.5715967501    -1.0214087362    -0.3893783015
    4      C      -0.7155727511     0.8598973750     0.2268124796
    5      Si     -2.3393648031     0.0227472458    -0.1601739944
    6      H      -2.5124025840    -1.1865087651     0.6819568820
    7      H      -2.3944211453    -0.3586757098    -1.5929845255
    8      H      -3.4340276049     0.9833633295     0.1315672317
    9      H      -0.6408677524     1.8719020689     0.6148270982
   10      C       2.8640787035     0.1859487872     0.0826815751
   11      H       3.6365413555     0.9355310263     0.2480977639
   12      H       2.9201151248    -0.2125681654    -0.9323655631
   13      H       2.9789329064    -0.6374860773     0.7923212322
 ----------------------------------------------------------------

   12    -558.3217613907      7.30E-09 Convergence criterion met
 Total energy in the final basis set = -558.3217613907
 Final energy is   -558.321761390714
 **  OPTIMIZATION CONVERGED  **

                    Orbital Energies (a.u.)
 --------------------------------------------------------------

 Alpha MOs
 -- Occupied --
-66.280 -19.321 -19.265 -10.431 -10.352 -10.335  -5.397  -3.742
 -3.741  -3.741  -1.212  -1.120  -0.873  -0.798  -0.668  -0.623
 -0.597  -0.578  -0.563  -0.513  -0.496  -0.448  -0.440  -0.438
 -0.426  -0.394  -0.367  -0.335

 Beta MOs
 -- Occupied --
-66.280 -19.320 -19.261 -10.433 -10.352 -10.326  -5.398  -3.742
 -3.742  -3.741  -1.209  -1.114  -0.857  -0.780  -0.664  -0.621
 -0.587  -0.572  -0.560  -0.509  -0.480  -0.445  -0.430  -0.429
 -0.424  -0.379  -0.361

          Ground-State Mulliken Net Atomic Charges

     Atom                 Charge (a.u.)    Spin (a.u.)
  --------------------------------------------------------
      1 C                     0.621839      -0.092459
      2 O                    -0.478073       0.023974
      3 O                    -0.477346       0.160175
      4 C                    -0.337100       0.932178
      5 Si                    0.469442      -0.048115
      6 H                    -0.083934       0.032413
      7 H                    -0.084185       0.031090
      8 H                    -0.106363      -0.000567
      9 H                     0.169858      -0.038736
     10 C                    -0.134894      -0.002644
     11 H                     0.142813       0.000059
     12 H                     0.150837       0.000848
     13 H                     0.147105       0.001783
  --------------------------------------------------------
  Sum of atomic charges =    -0.000000

                    Cartesian Multipole Moments
 -----------------------------------------------------------------
    Charge (ESU x 10^10)
                -0.0000
    Dipole Moment (Debye)
         X       0.8736      Y       1.5740      Z       0.5712
       Tot       1.8887
    Quadrupole Moments (Debye-Ang)
        XX     -36.9099     XY      -0.2081     YY     -45.8043
        XZ       0.0022     YZ      -0.9150     ZZ     -43.5751

 Total job time:  405.44s(wall), 3717.08s(cpu)
        *  Thank you very much for using Q-Chem.  Have a nice day.  *
