 Q-Chem 4.3 (beta), Q-Chem, Inc., Pleasanton, CA (2015)
 Q-Chem 4.3.0 for Mac (Intel) OS X

User input:
--------------------------------------------------------------
$comment
Basic HF optimization on water
$end

$molecule
0 1
O1
H1 O1 1.0
H2 O1 1.0 H1 104.5
$end

$rem
jobtype opt
exchange hf
basis 6-31G*
$end
--------------------------------------------------------------

   11     -76.0054767331      5.00E-09  00000 Convergence criterion met
 Total energy in the final basis set = -76.0054767331
   10     -76.0106485631      4.14E-09  00000 Convergence criterion met
 Total energy in the final basis set = -76.0106485631
    8     -76.0107439712      9.68E-09  00000 Convergence criterion met
 Total energy in the final basis set = -76.0107439712

             Standard Nuclear Orientation (Angstroms)
    I     Atom           X                Y                Z
 ----------------------------------------------------------------
    1      O       0.0204583326     0.0000000000     0.0158405335
    2      H       0.0121745745     0.0000000000     0.9631449011
    3      H       0.9355147333     0.0000000000    -0.2293654386
 ----------------------------------------------------------------

    7     -76.0107465076      6.56E-09  00000 Convergence criterion met
 Total energy in the final basis set = -76.0107465076
 Final energy is   -76.010746507588252
 **  OPTIMIZATION CONVERGED  **

                    Orbital Energies (a.u.)
 --------------------------------------------------------------

 Alpha MOs
 -- Occupied --
-20.558  -1.346  -0.714  -0.571  -0.498

          Ground-State Mulliken Net Atomic Charges

     Atom                 Charge (a.u.)
  ----------------------------------------
      1 O                    -0.868761
      2 H                     0.434381
      3 H                     0.434381
  ----------------------------------------
  Sum of atomic charges =    -0.000000

                    Cartesian Multipole Moments
 -----------------------------------------------------------------
    Charge (ESU x 10^10)
                -0.0000
    Dipole Moment (Debye)
         X       1.7386      Y      -0.0000      Z       1.3462
       Tot       2.1989
    Quadrupole Moments (Debye-Ang)
        XX      -4.9041     XY       0.0000     YY      -7.2057
        XZ      -0.6184     YZ      -0.0000     ZZ      -4.5842

 Total job time:  2.13s(wall), 2.05s(cpu)
        *  Thank you very much for using Q-Chem.  Have a nice day.  *
