 Q-Chem 4.3 (beta), Q-Chem, Inc., Pleasanton, CA (2015)
 Q-Chem 4.3.0 for Intel X86 EM64T Linux

User input:
--------------------------------------------------------------
$comment
Calculating demonstrating omegaB97X-D with ideal basis set
Also - Z-Matrix input
$end

$molecule
0 1
O1
H1 O1 1.0
H2 O1 1.0 H1 104.5
$end

$rem
jobtype sp
method wb97x-d
basis 6-311++G(3df,3pd)
$end
--------------------------------------------------------------

             Standard Nuclear Orientation (Angstroms)
    I     Atom           X                Y                Z
 ----------------------------------------------------------------
    1      O      -0.0000000000     0.0000000000     0.1224434560
    2      H      -0.7906895737    -0.0000000000    -0.4897738240
    3      H       0.7906895737    -0.0000000000    -0.4897738240
 ----------------------------------------------------------------

    7     -76.4350866407      2.30E-06 Convergence criterion met
 Total energy in the final basis set = -76.4350866407

             Orbital Energies (a.u.) and Symmetries
 --------------------------------------------------------------

 Alpha MOs, Restricted
 -- Occupied --
-19.261  -1.102  -0.609  -0.481  -0.405
  1 A1    2 A1    1 B1    3 A1    1 B2

 Beta MOs, Restricted
 -- Occupied --
-19.261  -1.102  -0.609  -0.481  -0.405
  1 A1    2 A1    1 B1    3 A1    1 B2

          Ground-State Mulliken Net Atomic Charges

     Atom                 Charge (a.u.)
  ----------------------------------------
      1 O                    -0.811811
      2 H                     0.405904
      3 H                     0.405907
  ----------------------------------------
  Sum of atomic charges =     0.000000

                    Cartesian Multipole Moments
 -----------------------------------------------------------------
    Charge (ESU x 10^10)
                -0.0000
    Dipole Moment (Debye)
         X       0.0000      Y      -0.0000      Z      -1.9375
       Tot       1.9375
    Quadrupole Moments (Debye-Ang)
        XX      -4.2624     XY       0.0000     YY      -7.7980
        XZ      -0.0000     YZ      -0.0000     ZZ      -6.3793

 Total job time:  3.68s(wall), 3.64s(cpu)
        *  Thank you very much for using Q-Chem.  Have a nice day.  *
