 Q-Chem 4.3 (beta), Q-Chem, Inc., Pleasanton, CA (2015)
 Q-Chem 4.3.0 for Intel X86 EM64T Linux

User input:
--------------------------------------------------------------
$molecule
    0 2
    C      0.5257302888    0.1305985181    0.0100075403
    O      1.6234821038    0.8582166421    0.2896131034
    O      0.5715967501   -1.0214087362   -0.3893783015
    C     -0.7155727511    0.8598973750    0.2268124796
    Si    -2.3393648031    0.0227472458   -0.1601739944
    H     -2.5124025840   -1.1865087651    0.6819568820
    H     -2.3944211453   -0.3586757098   -1.5929845255
    H     -3.4340276049    0.9833633295    0.1315672317
    H     -0.6408677524    1.8719020689    0.6148270982
    C      2.8640787035    0.1859487872    0.0826815751
    H      3.6365413555    0.9355310263    0.2480977639
    H      2.9201151248   -0.2125681654   -0.9323655631
    H      2.9789329064   -0.6374860773    0.7923212322
$end

$rem
    jobtype                     sp
    exchange                    omegaB97X-D
    basis                       6-311++G(3df,3pd)
    unrestricted                true
    scf_algorithm               diis
    make_cube_files             true
    plot_spin_density           true
$end

$plots
    Plot stuff
    100 -5.0 5.0
    100 -5.0 5.0
    100 -5.0 5.0
    0 1 0 0
    0
$end

--------------------------------------------------------------

             Standard Nuclear Orientation (Angstroms)
    I     Atom           X                Y                Z
 ----------------------------------------------------------------
    1      C       0.5006234175    -0.0177146200     0.0139517911
    2      O       1.6335038645     0.7096056924    -0.0019701597
    3      O       0.4899529266    -1.2377984767     0.0178273824
    4      C      -0.7045819868     0.7990843546     0.0197664081
    5      Si     -2.3713325705    -0.0425103728    -0.0108979729
    6      H      -2.5424824376    -0.8968116820     1.1900614696
    7      H      -2.5077429292    -0.8722919074    -1.2333199576
    8      H      -3.4190619687     1.0103036296    -0.0162493806
    9      H      -0.5786116066     1.8778140994     0.0473939784
   10      C       2.8403214887    -0.0501303969    -0.0173632084
   11      H       3.6436607379     0.6753309469    -0.1368893013
   12      H       2.8344219878    -0.7633611507    -0.8441301783
   13      H       2.9626403578    -0.5977324683     0.9207172639
 ----------------------------------------------------------------

   16    -558.4399086949      4.07E-06 Convergence criterion met
 Total energy in the final basis set = -558.4399086949

                    Orbital Energies (a.u.)
 --------------------------------------------------------------

 Alpha MOs
 -- Occupied --
-66.255 -19.303 -19.245 -10.421 -10.340 -10.327  -5.390  -3.734
 -3.734  -3.733  -1.219  -1.128  -0.880  -0.802  -0.673  -0.628
 -0.604  -0.586  -0.572  -0.520  -0.503  -0.456  -0.446  -0.442
 -0.430  -0.405  -0.379  -0.343

 Beta MOs
 -- Occupied --
-66.255 -19.302 -19.241 -10.422 -10.340 -10.317  -5.390  -3.735
 -3.734  -3.734  -1.217  -1.122  -0.863  -0.785  -0.670  -0.626
 -0.595  -0.580  -0.568  -0.517  -0.487  -0.454  -0.435  -0.433
 -0.428  -0.391  -0.373

          Ground-State Mulliken Net Atomic Charges

     Atom                 Charge (a.u.)    Spin (a.u.)
  --------------------------------------------------------
      1 C                     0.673697      -0.005645
      2 O                    -0.488389       0.025984
      3 O                    -0.661894       0.159033
      4 C                    -0.193775       0.810150
      5 Si                    0.435639      -0.040463
      6 H                    -0.077585       0.027055
      7 H                    -0.078606       0.025722
      8 H                    -0.072342       0.000165
      9 H                     0.031561      -0.001163
     10 C                     0.503152      -0.004873
     11 H                    -0.056950       0.000050
     12 H                    -0.004833       0.001486
     13 H                    -0.009675       0.002497
  --------------------------------------------------------
  Sum of atomic charges =     0.000000

                    Cartesian Multipole Moments
 -----------------------------------------------------------------
    Charge (ESU x 10^10)
                 0.0000
    Dipole Moment (Debye)
         X       0.8904      Y       1.7125      Z      -0.0120
       Tot       1.9302
    Quadrupole Moments (Debye-Ang)
        XX     -37.9266     XY      -0.6301     YY     -47.3112
        XZ      -0.0754     YZ       0.1126     ZZ     -43.9872

 Total job time:  2355.33s(wall), 2351.28s(cpu)
        *  Thank you very much for using Q-Chem.  Have a nice day.  *
