 Q-Chem 4.2, Q-Chem, Inc., Pleasanton, CA (2014).
 Q-Chem 4.2.0 for Intel X86 EM64T Linux

User input:
--------------------------------------------------------------
$molecule
    0 2
    C      0.5257302888    0.1305985181    0.0100075403
    O      1.6234821038    0.8582166421    0.2896131034
    O      0.5715967501   -1.0214087362   -0.3893783015
    C     -0.7155727511    0.8598973750    0.2268124796
    Si    -2.3393648031    0.0227472458   -0.1601739944
    H     -2.5124025840   -1.1865087651    0.6819568820
    H     -2.3944211453   -0.3586757098   -1.5929845255
    H     -3.4340276049    0.9833633295    0.1315672317
    H     -0.6408677524    1.8719020689    0.6148270982
    C      2.8640787035    0.1859487872    0.0826815751
    H      3.6365413555    0.9355310263    0.2480977639
    H      2.9201151248   -0.2125681654   -0.9323655631
    H      2.9789329064   -0.6374860773    0.7923212322
$end

$rem
    jobtype                     sp
    exchange                    b3lyp
    !exchange                   omegaB97X-D
    basis                       STO-3G
    unrestricted                true
    scf_algorithm               diis
    make_cube_files             true
    plot_spin_density           true
$end

$plots
    Plot stuff
    50 -10.0 10.0
    50 -10.0 10.0
    50 -10.0 10.0
    0 1 0 0
    0
$end

--------------------------------------------------------------

             Standard Nuclear Orientation (Angstroms)
    I     Atom           X                Y                Z
 ----------------------------------------------------------------
    1      C       0.5006234175    -0.0177146200     0.0139517911
    2      O       1.6335038645     0.7096056924    -0.0019701597
    3      O       0.4899529266    -1.2377984767     0.0178273824
    4      C      -0.7045819868     0.7990843546     0.0197664081
    5      Si     -2.3713325705    -0.0425103728    -0.0108979729
    6      H      -2.5424824376    -0.8968116820     1.1900614696
    7      H      -2.5077429292    -0.8722919074    -1.2333199576
    8      H      -3.4190619687     1.0103036296    -0.0162493806
    9      H      -0.5786116066     1.8778140994     0.0473939784
   10      C       2.8403214887    -0.0501303969    -0.0173632084
   11      H       3.6436607379     0.6753309469    -0.1368893013
   12      H       2.8344219878    -0.7633611507    -0.8441301783
   13      H       2.9626403578    -0.5977324683     0.9207172639
 ----------------------------------------------------------------

   12    -551.5361266104      8.32E-06  00000 Convergence criterion met
 Total energy in the final basis set = -551.5361266104

                    Orbital Energies (a.u.)
 --------------------------------------------------------------

 Alpha MOs
 -- Occupied --
-65.380 -18.932 -18.853 -10.102 -10.070  -9.970  -5.101  -3.402
 -3.402  -3.402  -1.042  -0.951  -0.710  -0.649  -0.514  -0.472
 -0.441  -0.428  -0.397  -0.347  -0.341  -0.301  -0.293  -0.290
 -0.241  -0.183  -0.160  -0.148

 Beta MOs
 -- Occupied --
-65.381 -18.932 -18.849 -10.104 -10.070  -9.957  -5.102  -3.403
 -3.402  -3.402  -1.039  -0.941  -0.697  -0.629  -0.512  -0.470
 -0.433  -0.427  -0.394  -0.335  -0.330  -0.296  -0.290  -0.281
 -0.238  -0.166  -0.140

          Ground-State Mulliken Net Atomic Charges

     Atom                 Charge (a.u.)    Spin (a.u.)
  --------------------------------------------------------
      1 C                     0.208269      -0.136197
      2 O                    -0.196807      -0.001847
      3 O                    -0.242321       0.258571
      4 C                    -0.231157       0.931065
      5 Si                    0.593158      -0.061662
      6 H                    -0.117710       0.026042
      7 H                    -0.118004       0.025021
      8 H                    -0.127884       0.000018
      9 H                     0.077478      -0.039601
     10 C                    -0.125911      -0.002038
     11 H                     0.096218       0.000144
     12 H                     0.093671       0.000106
     13 H                     0.091001       0.000379
  --------------------------------------------------------
  Sum of atomic charges =     0.000000

                    Cartesian Multipole Moments
 -----------------------------------------------------------------
    Charge (ESU x 10^10)
                 0.0000
    Dipole Moment (Debye)
         X       0.2716      Y       0.8148      Z      -0.0174
       Tot       0.8591
    Quadrupole Moments (Debye-Ang)
        XX     -35.0053     XY      -0.6840     YY     -42.6175
        XZ      -0.0576     YZ       0.0660     ZZ     -39.3715

 Total job time:  23.66s(wall), 23.65s(cpu)
        *  Thank you very much for using Q-Chem.  Have a nice day.  *
