 Q-Chem 4.3 (beta), Q-Chem, Inc., Pleasanton, CA (2015)
 Q-Chem 4.3.0 for Mac (Intel) OS X

User input:
--------------------------------------------------------------
$molecule
    0 2
    C      0.5257302888    0.1305985181    0.0100075403
    O      1.6234821038    0.8582166421    0.2896131034
    O      0.5715967501   -1.0214087362   -0.3893783015
    C     -0.7155727511    0.8598973750    0.2268124796
    Si    -2.3393648031    0.0227472458   -0.1601739944
    H     -2.5124025840   -1.1865087651    0.6819568820
    H     -2.3944211453   -0.3586757098   -1.5929845255
    H     -3.4340276049    0.9833633295    0.1315672317
    H     -0.6408677524    1.8719020689    0.6148270982
    C      2.8640787035    0.1859487872    0.0826815751
    H      3.6365413555    0.9355310263    0.2480977639
    H      2.9201151248   -0.2125681654   -0.9323655631
    H      2.9789329064   -0.6374860773    0.7923212322
$end

$rem
    jobtype                     sp
    exchange                   omegaB97X-D
    !basis                       6-31G**
    basis                       STO-3G
    unrestricted                true
    scf_algorithm               diis
    make_cube_files             true
$end

$plots
    Plot stuff
    50 -10.0 10.0
    50 -10.0 10.0
    50 -10.0 10.0
    2 0 0 0
    0 20
$end

--------------------------------------------------------------

             Standard Nuclear Orientation (Angstroms)
    I     Atom           X                Y                Z
 ----------------------------------------------------------------
    1      C       0.5257302888     0.1305985181     0.0100075403
    2      O       1.6234821038     0.8582166421     0.2896131034
    3      O       0.5715967501    -1.0214087362    -0.3893783015
    4      C      -0.7155727511     0.8598973750     0.2268124796
    5      Si     -2.3393648031     0.0227472458    -0.1601739944
    6      H      -2.5124025840    -1.1865087651     0.6819568820
    7      H      -2.3944211453    -0.3586757098    -1.5929845255
    8      H      -3.4340276049     0.9833633295     0.1315672317
    9      H      -0.6408677524     1.8719020689     0.6148270982
   10      C       2.8640787035     0.1859487872     0.0826815751
   11      H       3.6365413555     0.9355310263     0.2480977639
   12      H       2.9201151248    -0.2125681654    -0.9323655631
   13      H       2.9789329064    -0.6374860773     0.7923212322
 ----------------------------------------------------------------

   11    -551.4887457782      3.13E-06 Convergence criterion met
 Total energy in the final basis set = -551.4887457782

                    Orbital Energies (a.u.)
 --------------------------------------------------------------

 Alpha MOs
 -- Occupied --
-65.528 -19.050 -18.973 -10.215 -10.178 -10.081  -5.211  -3.501
 -3.500  -3.500  -1.143  -1.050  -0.809  -0.746  -0.607  -0.563
 -0.532  -0.516  -0.483  -0.436  -0.429  -0.382  -0.375  -0.371
 -0.326  -0.266  -0.241  -0.234

 Beta MOs
 -- Occupied --
-65.528 -19.050 -18.969 -10.217 -10.178 -10.069  -5.212  -3.502
 -3.501  -3.501  -1.141  -1.041  -0.795  -0.724  -0.605  -0.560
 -0.521  -0.515  -0.479  -0.424  -0.416  -0.377  -0.371  -0.360
 -0.323  -0.247  -0.225

          Ground-State Mulliken Net Atomic Charges

     Atom                 Charge (a.u.)    Spin (a.u.)
  --------------------------------------------------------
      1 C                     0.215383      -0.158304
      2 O                    -0.201588      -0.008009
      3 O                    -0.246668       0.270718
      4 C                    -0.226498       0.962364
      5 Si                    0.570791      -0.067436
      6 H                    -0.112094       0.024200
      7 H                    -0.112369       0.023237
      8 H                    -0.121969       0.000170
      9 H                     0.079961      -0.045241
     10 C                    -0.127199      -0.001743
     11 H                     0.096718       0.000162
     12 H                     0.094286      -0.000142
     13 H                     0.091248       0.000025
  --------------------------------------------------------
  Sum of atomic charges =     0.000000

                    Cartesian Multipole Moments
 -----------------------------------------------------------------
    Charge (ESU x 10^10)
                 0.0000
    Dipole Moment (Debye)
         X       0.1971      Y       0.7967      Z       0.2678
       Tot       0.8633
    Quadrupole Moments (Debye-Ang)
        XX     -34.9140     XY      -0.3497     YY     -42.0920
        XZ      -0.0432     YZ      -0.9906     ZZ     -39.6391

 Total job time:  8643.03s(wall), 10.43s(cpu)
        *  Thank you very much for using Q-Chem.  Have a nice day.  *
