 Q-Chem 4.3 (beta), Q-Chem, Inc., Pleasanton, CA (2015)
 Q-Chem 4.3.0 for Intel X86 EM64T Linux

User input:
--------------------------------------------------------------
$comment
Testing if dielectric=0 equates to vacuum calc
$end

$molecule
  -1 1
    B         -0.56570        1.96068        0.07064
    O          0.25487        2.66727       -0.93869
    O         -1.46324        2.92335        0.73907
    O         -1.39180        0.93604       -0.59782
    H         -0.88069        3.53511        1.25833
    H          0.86420        3.26526       -0.43440
    H         -0.76724        0.36997       -1.12006
    O          0.30336        1.31482        1.08004
    H          0.95234        0.75999        0.57591
$end

$rem
jobtype          opt
basis            6-31G*
method           hf
solvent_method   pcm
$end

$pcm
theory cpcm
method swig
$end

$solvent
dielectric 0
$end

--------------------------------------------------------------

   12    -326.7152245957      8.28E-09 Convergence criterion met
 Total energy in the final basis set = -326.7152245957
   12    -326.7246802484      3.89E-09 Convergence criterion met
 Total energy in the final basis set = -326.7246802484
   12    -326.7250159072      5.96E-09 Convergence criterion met
 Total energy in the final basis set = -326.7250159072
   12    -326.7251300608      6.81E-09 Convergence criterion met
 Total energy in the final basis set = -326.7251300608
   12    -326.7252100233      6.90E-09 Convergence criterion met
 Total energy in the final basis set = -326.7252100233
   12    -326.7252610582      6.86E-09 Convergence criterion met
 Total energy in the final basis set = -326.7252610582
   12    -326.7252896838      9.06E-09 Convergence criterion met
 Total energy in the final basis set = -326.7252896838
   12    -326.7253404367      5.63E-09 Convergence criterion met
 Total energy in the final basis set = -326.7253404367
   12    -326.7253802207      5.47E-09 Convergence criterion met
 Total energy in the final basis set = -326.7253802207
   12    -326.7253976162      6.38E-09 Convergence criterion met
 Total energy in the final basis set = -326.7253976162
   13    -326.7253998929      4.00E-09 Convergence criterion met
 Total energy in the final basis set = -326.7253998929

             Standard Nuclear Orientation (Angstroms)
    I     Atom           X                Y                Z
 ----------------------------------------------------------------
    1      B      -0.5481853798     1.9618941258     0.0693554800
    2      O       0.2896310546     2.5491492155    -0.9983635586
    3      O      -1.4521008581     2.9212958457     0.7040386036
    4      O      -1.3846595636     0.9440918563    -0.5671248234
    5      H      -0.9916137193     3.3390142127     1.4180197373
    6      H       0.9406190887     3.1121513483    -0.6023754520
    7      H      -0.8921615302     0.5495032304    -1.2728778376
    8      O       0.3243721178     1.4311343943     1.1389420062
    9      H       1.0201987899     0.9242557710     0.7434058444
 ----------------------------------------------------------------

   14    -326.7254000872      3.02E-09 Convergence criterion met
 Total energy in the final basis set = -326.7254000872
 Final energy is   -326.725400087151
 **  OPTIMIZATION CONVERGED  **

                    Orbital Energies (a.u.)
 --------------------------------------------------------------

 Alpha MOs
 -- Occupied --
-20.483 -20.483 -20.482 -20.482  -7.587  -1.317  -1.254  -1.250
 -1.244  -0.704  -0.643  -0.634  -0.578  -0.546  -0.523  -0.475
 -0.464  -0.454  -0.420  -0.409  -0.399

          Ground-State Mulliken Net Atomic Charges

     Atom                 Charge (a.u.)
  ----------------------------------------
      1 B                     0.891204
      2 O                    -0.901754
      3 O                    -0.882483
      4 O                    -0.882216
      5 H                     0.421013
      6 H                     0.417736
      7 H                     0.420817
      8 O                    -0.902019
      9 H                     0.417701
  ----------------------------------------
  Sum of atomic charges =    -1.000000

                    Cartesian Multipole Moments
 -----------------------------------------------------------------
    Charge (ESU x 10^10)
                -4.8032
    Dipole Moment (Debye)
         X       7.0406      Y      -9.2679      Z      -0.3166
       Tot      11.6432
    Quadrupole Moments (Debye-Ang)
        XX     -40.2408     XY      13.5932     YY     -47.6511
        XZ       0.3089     YZ       4.2923     ZZ     -35.4316

 Total job time:  66.20s(wall), 63.68s(cpu)
        *  Thank you very much for using Q-Chem.  Have a nice day.  *
