 Q-Chem 4.3 (beta), Q-Chem, Inc., Pleasanton, CA (2015)
 Q-Chem 4.3.0 for Intel X86 EM64T Linux

User input:
--------------------------------------------------------------
$molecule
  -1 1
    B         -0.56570        1.96068        0.07064
    O          0.25487        2.66727       -0.93869
    O         -1.46324        2.92335        0.73907
    O         -1.39180        0.93604       -0.59782
    H         -0.88069        3.53511        1.25833
    H          0.86420        3.26526       -0.43440
    H         -0.76724        0.36997       -1.12006
    O          0.30336        1.31482        1.08004
    H          0.95234        0.75999        0.57591
$end

$rem
jobtype          opt
basis            6-31G*
method           hf
$end
--------------------------------------------------------------

   13    -326.5939297492      5.74E-09 Convergence criterion met
 Total energy in the final basis set = -326.5939297492
   12    -326.6046534407      4.84E-09 Convergence criterion met
 Total energy in the final basis set = -326.6046534407
   11    -326.6056261061      6.83E-09 Convergence criterion met
 Total energy in the final basis set = -326.6056261061
   11    -326.6065541541      7.85E-09 Convergence criterion met
 Total energy in the final basis set = -326.6065541541
   11    -326.6073189424      6.90E-09 Convergence criterion met
 Total energy in the final basis set = -326.6073189424
   11    -326.6080137191      6.45E-09 Convergence criterion met
 Total energy in the final basis set = -326.6080137191
   11    -326.6086967753      6.30E-09 Convergence criterion met
 Total energy in the final basis set = -326.6086967753
   11    -326.6094348028      5.99E-09 Convergence criterion met
   11    -326.6153977925      3.92E-09 Convergence criterion met
 Total energy in the final basis set = -326.6153977925
    9    -326.6154242921      8.71E-09 Convergence criterion met
 Total energy in the final basis set = -326.6154242921
   10    -326.6154473732      3.85E-09 Convergence criterion met
 Total energy in the final basis set = -326.6154473732
   10    -326.6154653636      3.47E-09 Convergence criterion met
 Total energy in the final basis set = -326.6154653636
   10    -326.6154755023      2.15E-09 Convergence criterion met
 Total energy in the final basis set = -326.6154755023
    9    -326.6154774901      4.03E-09 Convergence criterion met
 Total energy in the final basis set = -326.6154774901

             Standard Nuclear Orientation (Angstroms)
    I     Atom           X                Y                Z
 ----------------------------------------------------------------
    1      B       0.0000961363    -0.2138541652     0.0002753665
    2      O       0.0303264314    -1.0136571827     1.2359054083
    3      O      -1.2361194510     0.5851117018     0.0307685213
    4      O       1.2358222047     0.5858864019    -0.0296342591
    5      H      -1.3841367281     0.8596270196    -0.8617049353
    6      H      -0.8622092959    -1.2882842210     1.3833077752
    7      H       1.3835247715     0.8601025151     0.8629857906
    8      O      -0.0296787797    -1.0127882967    -1.2359293276
    9      H       0.8630116257    -1.2867927296    -1.3835405784
 ----------------------------------------------------------------

    8    -326.6154776997      3.34E-09 Convergence criterion met
 Total energy in the final basis set = -326.6154776997
 Final energy is   -326.615477699703
 **  OPTIMIZATION CONVERGED  **

                    Orbital Energies (a.u.)
 --------------------------------------------------------------

 Alpha MOs
 -- Occupied --
-20.299 -20.299 -20.299 -20.299  -7.402  -1.135  -1.069  -1.069
 -1.060  -0.505  -0.452  -0.452  -0.430  -0.352  -0.314  -0.288
 -0.288  -0.270  -0.237  -0.220  -0.220

          Ground-State Mulliken Net Atomic Charges

     Atom                 Charge (a.u.)
  ----------------------------------------
      1 B                     0.918592
      2 O                    -0.865217
      3 O                    -0.865258
      4 O                    -0.865245
      5 H                     0.385581
      6 H                     0.385596
      7 H                     0.385578
      8 O                    -0.865226
      9 H                     0.385599
  ----------------------------------------
  Sum of atomic charges =    -1.000000

                    Cartesian Multipole Moments
 -----------------------------------------------------------------
    Charge (ESU x 10^10)
                -4.8032
    Dipole Moment (Debye)
         X      -0.0006      Y       1.0274      Z      -0.0015
       Tot       1.0274
    Quadrupole Moments (Debye-Ang)
        XX     -33.7531     XY       0.0004     YY     -33.8014
        XZ       0.0021     YZ       0.0009     ZZ     -33.7579

 Total job time:  62.44s(wall), 62.31s(cpu)
        *  Thank you very much for using Q-Chem.  Have a nice day.  *
